29
 energy: -59.576176396199 gnorm: 0.000031127965 xtb: 6.4.1 (afa7bdf)
Cl        0.40645537430904   -3.48057885266128    0.52648210789586
Cl        4.56306938436742   -0.12748748204958   -0.31266307845573
Cl        2.46046681414672    2.23913640752858   -0.30117320536353
S        -1.85831729988565    1.13307595012224   -1.69544532791473
P        -2.01400109968310    0.38701734004808    0.09406211544358
O        -1.74015701893722    1.26227362662346    1.38213118776031
O        -3.44671056445397   -0.20766039127908    0.44118367235636
O        -1.10089183023865   -0.93349040020105    0.44190156418190
N         0.67702037742378    0.42276086265999    0.10749824689852
C        -2.00702745157242    2.66915609394893    1.37472591116883
C        -4.25369930552953   -0.82325272517303   -0.56124198742173
C         0.21797314817122   -0.79795165924955    0.28617294570415
C        -0.78552933714631    3.44997626513763    0.92748567704746
C        -3.70843318104376   -2.17938052427535   -0.96717011690291
C         1.06079951495890   -1.91538899111038    0.29653178695314
C         2.41874740038515   -1.71342557078685    0.11416544061804
C         2.89131468477655   -0.41986006067635   -0.07838021313284
C         1.96912698145451    0.62702016011960   -0.07315363551356
H        -2.85677481634764    2.88164725303404    0.71847165558631
H        -2.27935839427052    2.91277516808287    2.40519646670244
H        -5.24473059736686   -0.91029191894346   -0.10963137044697
H        -4.30288583566664   -0.16102398670202   -1.43332892942963
H        -0.54044547399857    3.19126982284240   -0.09916111454347
H        -0.98966239324682    4.51546854629030    0.98827620959321
H         0.06376960491024    3.20956062979681    1.56099166103200
H        -4.39662118010258   -2.66191653433924   -1.65586325289718
H        -2.74540618919295   -2.05482542853373   -1.45932287570119
H        -3.57506865221153   -2.80897137904937   -0.09092868609565
H         3.10073814689259   -2.54873870499898    0.11542115769620
